# y+ ()             
# Time              	patch               	min                 	max                 	average             
0.0699931           	front	4.238190765545e+01	9.593020318134e+01	7.949151642994e+01
0.0699931           	top	6.578074596672e+01	1.133516680196e+02	1.039894874896e+02
0.0699931           	bot	3.526921137690e+01	1.612894918424e+02	9.245956415001e+01
0.0699931           	obstacle	3.613118394902e+01	2.448898947044e+02	1.176401897297e+02
0.0699931           	back	4.238179239117e+01	9.593014322045e+01	7.949149691843e+01
